 Gaussian 16, Revision C.01,
 Gaussian 16:  ES64L-G16RevC.01  3-Jul-2019

 ----------------------------------------------------------------------
 #P blyp/4-21G EmpiricalDispersion(GD3) scf(qc) opt(tight,maxcycle=100)
 ----------------------------------------------------------------------

 ------------------------------
 Gaussian input prepared by ASE
 ------------------------------
 Symbolic Z-matrix:
 Charge =  0 Multiplicity = 1

 SCF Done:  E(RB-LYP) =  -935.292592385     a.u. after    9 cycles
 SCF Done:  E(RB-LYP) =  -935.292592385     a.u. after    2 cycles
 SCF Done:  E(RB-LYP) =  -935.292592382     a.u. after    2 cycles
 SCF Done:  E(RB-LYP) =  -935.292592385     a.u. after    2 cycles
 Optimization completed.
    -- Stationary point found.

                         Standard orientation:
 ---------------------------------------------------------------------
 Center     Atomic      Atomic             Coordinates (Angstroms)
 Number     Number       Type             X           Y           Z
 ---------------------------------------------------------------------
      1          6           0        4.998808   -0.868539    0.000004
      2          7           0        3.907434   -1.642136    0.000001
      3          6           0        2.822094   -0.727094   -0.000002
      4          6           0        3.287380    0.613415    0.000001
      5          7           0        4.679995    0.515221    0.000006
      6          1           0        5.320344    1.310986    0.000007
      7          7           0        2.562227    1.768382    0.000003
      8          6           0        1.222307    1.539651    0.000000
      9          7           0        0.663489    0.258817   -0.000006
     10          6           0        1.407040   -0.963882   -0.000011
     11          8           0        0.802170   -2.090244   -0.000017
     12          7           0        0.364561    2.596554    0.000012
     13          1           0        6.025121   -1.216961    0.000009
     14          1           0       -0.395384    0.154511   -0.000002
     15          1           0        0.791681    3.523583    0.000023
     16          1           0       -0.673415    2.492897    0.000016
     17          6           0       -4.161649   -1.473790   -0.000003
     18          6           0       -4.932043   -0.342425   -0.000015
     19          7           0       -4.342248    0.905859   -0.000010
     20          6           0       -2.908344    1.080472   -0.000003
     21          8           0       -2.451083    2.262492    0.000004
     22          7           0       -2.143133   -0.067120    0.000001
     23          6           0       -2.714109   -1.311965    0.000001
     24          7           0       -1.888327   -2.375438    0.000019
     25          1           0       -4.897525    1.766486   -0.000011
     26          1           0       -4.615026   -2.461966    0.000011
     27          1           0       -6.021205   -0.372687   -0.000014
     28          1           0       -0.821809   -2.249870    0.000009
     29          1           0       -2.278362   -3.320999    0.000027
 ---------------------------------------------------------------------

 The electronic state is 1-A.
 Alpha  occ. eigenvalues --  -18.76809 -18.74110 -14.09600 -14.06065 -14.04261
 Alpha  occ. eigenvalues --  -14.03482 -14.02460 -14.01433 -13.98954 -13.98894
 Alpha  occ. eigenvalues --  -10.05525 -10.02601 -10.01708 -10.00579 -10.00182
 Alpha  occ. eigenvalues --   -9.97105  -9.96175  -9.94953  -9.91775  -0.96037
 Alpha  occ. eigenvalues --   -0.92004  -0.90164  -0.89315  -0.87604  -0.86437
 Alpha  occ. eigenvalues --   -0.80002  -0.79244  -0.78469  -0.76566  -0.71865
 Alpha  occ. eigenvalues --   -0.65478  -0.60818  -0.59639  -0.57581  -0.55643
 Alpha  occ. eigenvalues --   -0.53181  -0.52244  -0.51030  -0.49933  -0.48017
 Alpha  occ. eigenvalues --   -0.45464  -0.45140  -0.43995  -0.42444  -0.40608
 Alpha  occ. eigenvalues --   -0.40413  -0.40341  -0.39471  -0.37980  -0.37520
 Alpha  occ. eigenvalues --   -0.35602  -0.34978  -0.33399  -0.33188  -0.32449
 Alpha  occ. eigenvalues --   -0.30855  -0.30215  -0.23763  -0.23078  -0.21818
 Alpha  occ. eigenvalues --   -0.21224  -0.20637  -0.20560  -0.20334  -0.18978
 Alpha  occ. eigenvalues --   -0.18396  -0.17097  -0.13912
 Alpha virt. eigenvalues --   -0.06068  -0.01826  -0.00086   0.01062   0.04019
 Alpha virt. eigenvalues --    0.04828   0.07702   0.08676   0.08732   0.09180
 Alpha virt. eigenvalues --    0.10735   0.12999   0.13429   0.14901   0.15165

 Mulliken charges:
               1
     1  C    0.235826
     2  N   -0.496509
     3  C    0.114672
     4  C    0.555806
     5  N   -0.691567
     6  H    0.304245
     7  N   -0.615151
     8  C    0.780745
     9  N   -0.762374
    10  C    0.588679
    11  O   -0.506153
    12  N   -0.752810
    13  H    0.191686
    14  H    0.348437
    15  H    0.296257
    16  H    0.316273
    17  C   -0.240650
    18  C    0.140246
    19  N   -0.667673
    20  C    0.759349
    21  O   -0.475280
    22  N   -0.640333
    23  C    0.604279
    24  N   -0.734059
    25  H    0.321708
    26  H    0.171558
    27  H    0.216650
    28  H    0.341998
    29  H    0.294145
 Sum of Mulliken charges =  -0.00000

 Dipole moment (field-independent basis, Debye):
    X=             -6.5269    Y=              1.3997    Z=              0.0000  Tot=              6.6753
 Quadrupole moment (field-independent basis, Debye-Ang):
   XX=            -57.4260   YY=           -105.1555   ZZ=           -111.5625
   XY=             16.2133   XZ=              0.0001   YZ=             -0.0001

 Normal termination of Gaussian 16 at Thu Oct 26 08:06:44 2023.
