 Gaussian 16, Revision C.01,
 Gaussian 16:  ES64L-G16RevC.01  3-Jul-2019

 ---------------------------------------------------------------
 #P blyp/4-21G iop(7/33=1) freq EmpiricalDispersion(GD3) scf(qc)
 ---------------------------------------------------------------

 ------------------------------
 Gaussian input prepared by ASE
 ------------------------------
 Symbolic Z-matrix:
 Charge =  0 Multiplicity = 1

                         Standard orientation:
 ---------------------------------------------------------------------
 Center     Atomic      Atomic             Coordinates (Angstroms)
 Number     Number       Type             X           Y           Z
 ---------------------------------------------------------------------
      1          6           0        4.998808   -0.868539    0.000004
      2          7           0        3.907434   -1.642136    0.000001
      3          6           0        2.822094   -0.727094   -0.000002
      4          6           0        3.287380    0.613415    0.000001
      5          7           0        4.679995    0.515221    0.000006
      6          1           0        5.320344    1.310986    0.000007
      7          7           0        2.562227    1.768382    0.000003
      8          6           0        1.222307    1.539651    0.000000
      9          7           0        0.663489    0.258817   -0.000006
     10          6           0        1.407040   -0.963882   -0.000011
     11          8           0        0.802170   -2.090244   -0.000017
     12          7           0        0.364561    2.596554    0.000012
     13          1           0        6.025121   -1.216961    0.000009
     14          1           0       -0.395384    0.154511   -0.000002
     15          1           0        0.791681    3.523583    0.000023
     16          1           0       -0.673415    2.492897    0.000016
     17          6           0       -4.161649   -1.473790   -0.000003
     18          6           0       -4.932043   -0.342425   -0.000015
     19          7           0       -4.342248    0.905859   -0.000010
     20          6           0       -2.908344    1.080472   -0.000003
     21          8           0       -2.451083    2.262492    0.000004
     22          7           0       -2.143133   -0.067120    0.000001
     23          6           0       -2.714109   -1.311965    0.000001
     24          7           0       -1.888327   -2.375438    0.000019
     25          1           0       -4.897525    1.766486   -0.000011
     26          1           0       -4.615026   -2.461966    0.000011
     27          1           0       -6.021205   -0.372687   -0.000014
     28          1           0       -0.821809   -2.249870    0.000009
     29          1           0       -2.278362   -3.320999    0.000027
 ---------------------------------------------------------------------

 SCF Done:  E(RB-LYP) =  -935.292592385     a.u. after    9 cycles

 The electronic state is 1-A.
 Alpha  occ. eigenvalues --  -18.76809 -18.74110 -14.09600 -14.06065 -14.04261
 Alpha  occ. eigenvalues --  -14.03482 -14.02460 -14.01433 -13.98954 -13.98894
 Alpha  occ. eigenvalues --  -10.05525 -10.02601 -10.01708 -10.00579 -10.00182
 Alpha  occ. eigenvalues --   -9.97105  -9.96175  -9.94953  -9.91775  -0.96037
 Alpha  occ. eigenvalues --   -0.92004  -0.90164  -0.89315  -0.87604  -0.86437
 Alpha  occ. eigenvalues --   -0.80002  -0.79244  -0.78469  -0.76566  -0.71865
 Alpha  occ. eigenvalues --   -0.65478  -0.60818  -0.59639  -0.57581  -0.55643
 Alpha  occ. eigenvalues --   -0.53181  -0.52244  -0.51030  -0.49933  -0.48017
 Alpha  occ. eigenvalues --   -0.45464  -0.45140  -0.43995  -0.42444  -0.40608
 Alpha  occ. eigenvalues --   -0.40413  -0.40341  -0.39471  -0.37980  -0.37520
 Alpha  occ. eigenvalues --   -0.35602  -0.34978  -0.33399  -0.33188  -0.32449
 Alpha  occ. eigenvalues --   -0.30855  -0.30215  -0.23763  -0.23078  -0.21818
 Alpha  occ. eigenvalues --   -0.21224  -0.20637  -0.20560  -0.20334  -0.18978
 Alpha  occ. eigenvalues --   -0.18396  -0.17097  -0.13912
 Alpha virt. eigenvalues --   -0.06068  -0.01826  -0.00086   0.01062   0.04019
 Alpha virt. eigenvalues --    0.04828   0.07702   0.08676   0.08732   0.09180
 Alpha virt. eigenvalues --    0.10735   0.12999   0.13429   0.14901   0.15165

 Mulliken charges:
               1
     1  C    0.235826
     2  N   -0.496509
     3  C    0.114672
     4  C    0.555806
     5  N   -0.691567
     6  H    0.304245
     7  N   -0.615151
     8  C    0.780745
     9  N   -0.762374
    10  C    0.588679
    11  O   -0.506153
    12  N   -0.752810
    13  H    0.191686
    14  H    0.348437
    15  H    0.296257
    16  H    0.316273
    17  C   -0.240650
    18  C    0.140246
    19  N   -0.667673
    20  C    0.759349
    21  O   -0.475279
    22  N   -0.640334
    23  C    0.604279
    24  N   -0.734059
    25  H    0.321707
    26  H    0.171558
    27  H    0.216650
    28  H    0.341998
    29  H    0.294145
 Sum of Mulliken charges =  -0.00000

 Dipole moment (field-independent basis, Debye):
    X=             -6.5269    Y=              1.3997    Z=              0.0000  Tot=              6.6753
 Quadrupole moment (field-independent basis, Debye-Ang):
   XX=            -57.4260   YY=           -105.1555   ZZ=           -111.5625
   XY=             16.2133   XZ=              0.0001   YZ=             -0.0001

  Exact polarizability:     232.137      -7.034     175.754       0.000      -0.000      38.939
 Approx polarizability:     407.110     -17.442     470.262       0.001      -0.000      56.727

                      1                      2                      3
                      A                      A                      A
 Frequencies --     32.2656                46.7380                90.8464
 Red. masses --      6.0290                 7.3924                 7.4994
 Frc consts  --      0.0037                 0.0095                 0.0365
 IR Inten    --      8.8283                 2.1849                 0.1379

                      4                      5                      6
                      A                      A                      A
 Frequencies --    116.2896               144.8309               154.2818
 Red. masses --      8.7677                 7.4155                 6.1955
 Frc consts  --      0.0699                 0.0916                 0.0869
 IR Inten    --      1.5254                 0.0337                28.4065

                      7                      8                      9
                      A                      A                      A
 Frequencies --    164.4775               169.0641               184.4612
 Red. masses --      8.5975                 5.3449                 7.4484
 Frc consts  --      0.1370                 0.0900                 0.1493
 IR Inten    --      4.6421                 0.2401                 3.5052

                     10                     11                     12
                      A                      A                      A
 Frequencies --    199.2666               227.4049               340.4319
 Red. masses --      6.7124                 6.4373                 6.0291
 Frc consts  --      0.1570                 0.1961                 0.4117
 IR Inten    --      0.3434                 8.0825                16.5940

                     13                     14                     15
                      A                      A                      A
 Frequencies --    351.3979               383.4801               422.7397
 Red. masses --      8.9424                 5.1472                 3.4647
 Frc consts  --      0.6506                 0.4460                 0.3648
 IR Inten    --      0.0001                 3.9827                 9.1978

                     16                     17                     18
                      A                      A                      A
 Frequencies --    423.6497               485.7459               517.7181
 Red. masses --      4.9680                 8.7417                 6.4369
 Frc consts  --      0.5253                 1.2153                 1.0165
 IR Inten    --     16.5971                 6.2326                 2.2732

                     19                     20                     21
                      A                      A                      A
 Frequencies --    524.8187               539.1559               546.0766
 Red. masses --      1.1269                 6.8004                 1.1314
 Frc consts  --      0.1829                 1.1647                 0.1988
 IR Inten    --    103.9064                27.0271                79.2887

                     22                     23                     24
                      A                      A                      A
 Frequencies --    550.5611               576.5987               579.1702
 Red. masses --      4.5700                 1.1980                 8.7328
 Frc consts  --      0.8162                 0.2347                 1.7259
 IR Inten    --     34.1422               155.1854                 3.5102

                     25                     26                     27
                      A                      A                      A
 Frequencies --    611.1531               627.6088               634.2440
 Red. masses --      8.1995                 1.2840                 3.6372
 Frc consts  --      1.8044                 0.2980                 0.8621
 IR Inten    --     12.2603                53.7111                 0.3436

                     28                     29                     30
                      A                      A                      A
 Frequencies --    667.8104               679.8060               701.6084
 Red. masses --      5.5897                 7.1829                 7.9262
 Frc consts  --      1.4688                 1.9558                 2.2988
 IR Inten    --     41.7006                 0.5481                 8.2893

                     31                     32                     33
                      A                      A                      A
 Frequencies --    704.4615               738.7048               745.8125
 Red. masses --      2.1262                 8.0684                 6.3275
 Frc consts  --      0.6217                 2.5941                 2.0737
 IR Inten    --     71.6630                 2.1374                27.7758

                     34                     35                     36
                      A                      A                      A
 Frequencies --    750.7906               774.5820               777.9919
 Red. masses --      1.5075                 7.8307                 2.0919
 Frc consts  --      0.5007                 2.7681                 0.7460
 IR Inten    --     34.1393                15.4554                63.2430

                     37                     38                     39
                      A                      A                      A
 Frequencies --    797.9718               847.5574               904.0955
 Red. masses --      6.7607                 1.0744                 6.5221
 Frc consts  --      2.5364                 0.4547                 3.1410
 IR Inten    --      0.7543               111.8919                 6.3328

                     40                     41                     42
                      A                      A                      A
 Frequencies --    906.5622               944.0262               956.1411
 Red. masses --      5.5513                 1.2907                 6.5756
 Frc consts  --      2.6881                 0.6777                 3.5419
 IR Inten    --     15.1913                 0.0056                 3.2794

                     43                     44                     45
                      A                      A                      A
 Frequencies --    989.3548               997.5589              1025.4145
 Red. masses --      4.1171                 2.8556                 1.0844
 Frc consts  --      2.3743                 1.6743                 0.6718
 IR Inten    --     24.6497                14.3093                 9.3255

                     46                     47                     48
                      A                      A                      A
 Frequencies --   1059.7190              1067.1252              1077.3889
 Red. masses --      4.2253                 1.0959                 2.4487
 Frc consts  --      2.7957                 0.7352                 1.6747
 IR Inten    --      2.3171               291.5754                58.4825

                     49                     50                     51
                      A                      A                      A
 Frequencies --   1083.9500              1117.5463              1121.9858
 Red. masses --      5.1528                 1.8786                 2.2559
 Frc consts  --      3.5671                 1.3824                 1.6732
 IR Inten    --     62.5374                71.5568                 7.7851

                     52                     53                     54
                      A                      A                      A
 Frequencies --   1192.4222              1215.2897              1232.9757
 Red. masses --      4.2627                 3.6521                 1.1574
 Frc consts  --      3.5711                 3.1780                 1.0367
 IR Inten    --     38.4351                29.7951                50.8525

                     55                     56                     57
                      A                      A                      A
 Frequencies --   1253.5925              1302.0507              1342.0700
 Red. masses --      3.6000                 2.3002                 2.7846
 Frc consts  --      3.3332                 2.2976                 2.9550
 IR Inten    --     26.5055                13.6679                 8.6849

                     58                     59                     60
                      A                      A                      A
 Frequencies --   1361.2656              1377.6653              1386.5015
 Red. masses --      1.9206                 2.1402                 3.0414
 Frc consts  --      2.0968                 2.3933                 3.4448
 IR Inten    --     14.5700                86.2638                 1.0765

                     61                     62                     63
                      A                      A                      A
 Frequencies --   1424.5738              1447.9710              1452.2613
 Red. masses --      3.8695                 4.0194                 3.1331
 Frc consts  --      4.6267                 4.9651                 3.8933
 IR Inten    --    111.7233               114.1595                 8.5865

                     64                     65                     66
                      A                      A                      A
 Frequencies --   1492.1375              1510.7773              1590.6836
 Red. masses --      3.4290                 4.7644                 5.7075
 Frc consts  --      4.4981                 6.4071                 8.5087
 IR Inten    --    104.5180               210.6146               677.7761

                     67                     68                     69
                      A                      A                      A
 Frequencies --   1601.0091              1631.1965              1680.0954
 Red. masses --      4.3183                 5.1238                 1.4542
 Frc consts  --      6.5216                 8.0326                 2.4185
 IR Inten    --    241.9221                51.9284               589.9298

                     70                     71                     72
                      A                      A                      A
 Frequencies --   1706.3730              1742.7339              2617.5684
 Red. masses --      1.1598                 1.2608                 1.1032
 Frc consts  --      1.9896                 2.2561                 4.4534
 IR Inten    --     55.8432                43.1918               973.6771

                     73                     74                     75
                      A                      A                      A
 Frequencies --   2768.1531              3088.3751              3135.6285
 Red. masses --      1.0943                 1.0744                 1.0893
 Frc consts  --      4.9405                 6.0377                 6.3103
 IR Inten    --   3018.8194              1886.1774                 0.3976

                     76                     77                     78
                      A                      A                      A
 Frequencies --   3163.3863              3195.3361              3430.4428
 Red. masses --      1.0960                 1.0966                 1.0781
 Frc consts  --      6.4622                 6.5969                 7.4748
 IR Inten    --      2.7685                 3.6157                56.1835

                     79                     80                     81
                      A                      A                      A
 Frequencies --   3457.0984              3460.8195              3497.9144
 Red. masses --      1.0807                 1.0785                 1.0825
 Frc consts  --      7.6098                 7.6107                 7.8034
 IR Inten    --     32.6680                39.8044                69.8382

 - Thermochemistry -
 -------------------
 Temperature   298.150 Kelvin.  Pressure   1.00000 Atm.
 Atom     1 has atomic number  6 and mass  12.00000

 Molecular mass:   262.09267 amu.
 Principal axes and moments of inertia in atomic units:
                           1         2         3
     Eigenvalues --  2114.449848984.42446**********
           X            0.99997   0.00775  -0.00000
           Y           -0.00775   0.99997  -0.00000
           Z            0.00000   0.00000   1.00000
 This molecule is an asymmetric top.
 Rotational symmetry number  1.
 Warning -- assumption of classical behavior for rotation
           may cause significant error
 Rotational temperatures (Kelvin)      0.04096     0.00964     0.00780
 Rotational constants (GHZ):           0.85353     0.20087     0.16261
 Zero-point vibrational energy     549330.0 (Joules/Mol)
                                  131.29303 (Kcal/Mol)
 Warning -- explicit consideration of  25 degrees of freedom as
           vibrations may cause significant error
 Vibrational temperatures:     46.42    67.25   130.71   167.31   208.38
          (Kelvin)            221.98   236.65   243.25   265.40   286.70
                              327.18   489.81   505.58   551.74   608.23
                              609.54   698.88   744.88   755.10   775.73
                              785.68   792.13   829.60   833.30   879.31
                              902.99   912.54   960.83   978.09  1009.46
                             1013.56  1062.83  1073.06  1080.22  1114.45
                             1119.36  1148.10  1219.45  1300.79  1304.34
                             1358.24  1375.67  1423.46  1435.26  1475.34
                             1524.70  1535.36  1550.12  1559.56  1607.90
                             1614.29  1715.63  1748.53  1773.98  1803.64
                             1873.36  1930.94  1958.56  1982.15  1994.87
                             2049.64  2083.31  2089.48  2146.85  2173.67
                             2288.64  2303.50  2346.93  2417.28  2455.09
                             2507.41  3766.10  3982.75  4443.48  4511.47
                             4551.41  4597.38  4935.64  4973.99  4979.35
                             5032.72

 Zero-point correction=                           0.209229 (Hartree/Particle)
 Thermal correction to Energy=                    0.224751
 Thermal correction to Enthalpy=                  0.225695
 Thermal correction to Gibbs Free Energy=         0.165958
 Sum of electronic and zero-point Energies=           -935.083364
 Sum of electronic and thermal Energies=              -935.067841
 Sum of electronic and thermal Enthalpies=            -935.066897
 Sum of electronic and thermal Free Energies=         -935.126635

                     E (Thermal)             CV                S
                      KCal/Mol        Cal/Mol-Kelvin    Cal/Mol-Kelvin
 Total                  141.034             61.685            125.729
 Electronic               0.000              0.000              0.000
 Translational            0.889              2.981             42.590
 Rotational               0.889              2.981             33.710
 Vibrational            139.256             55.724             49.429
 Vibration     1          0.594              1.983              5.685
 Vibration     2          0.595              1.979              4.951
 Vibration     3          0.602              1.956              3.642
 Vibration     4          0.608              1.936              3.161
 Vibration     5          0.616              1.908              2.739
 Vibration     6          0.620              1.898              2.619
 Vibration     7          0.623              1.886              2.498
 Vibration     8          0.625              1.881              2.446
 Vibration     9          0.631              1.861              2.283
 Vibration    10          0.637              1.841              2.140
 Vibration    11          0.651              1.799              1.899
 Vibration    12          0.720              1.595              1.210
 Vibration    13          0.728              1.572              1.160
 Vibration    14          0.753              1.505              1.025
 Vibration    15          0.785              1.421              0.883
 Vibration    16          0.786              1.419              0.880
 Vibration    17          0.842              1.282              0.695
 Vibration    18          0.873              1.211              0.615
 Vibration    19          0.880              1.195              0.599
 Vibration    20          0.894              1.163              0.567
 Vibration    21          0.901              1.148              0.552
 Vibration    22          0.906              1.138              0.543
 Vibration    23          0.933              1.082              0.492
 Vibration    24          0.936              1.076              0.487
 Vibration    25          0.970              1.008              0.431

 Optimization completed.
    -- Stationary point found.
 Normal termination of Gaussian 16 at Thu Oct 26 08:24:21 2023.
 Normal termination of Gaussian 16 at Thu Oct 26 08:24:07 2023.
