 Gaussian 16, Revision C.01,
 Gaussian 16:  ES64L-G16RevC.01  3-Jul-2019

 ----------------------------------------------------------------------
 #P blyp/4-21G EmpiricalDispersion(GD3) scf(qc) opt(tight,maxcycle=100,
 ModRedundant)
 ----------------------------------------------------------------------

 ------------------------------
 Gaussian input prepared by ASE
 ------------------------------
 Symbolic Z-matrix:
 Charge =  0 Multiplicity = 1

 SCF Done:  E(RB-LYP) =  -935.291341430     a.u. after    9 cycles
 SCF Done:  E(RB-LYP) =  -935.291608419     a.u. after    4 cycles
 SCF Done:  E(RB-LYP) =  -935.291625232     a.u. after    3 cycles
 SCF Done:  E(RB-LYP) =  -935.291626877     a.u. after    2 cycles
 SCF Done:  E(RB-LYP) =  -935.291627133     a.u. after    2 cycles
 SCF Done:  E(RB-LYP) =  -935.291627153     a.u. after    2 cycles
 SCF Done:  E(RB-LYP) =  -935.291627092     a.u. after    2 cycles
 SCF Done:  E(RB-LYP) =  -935.291627169     a.u. after    2 cycles
 SCF Done:  E(RB-LYP) =  -935.291627169     a.u. after    2 cycles
 SCF Done:  E(RB-LYP) =  -935.291627171     a.u. after    2 cycles
 SCF Done:  E(RB-LYP) =  -935.291627171     a.u. after    2 cycles
 Optimization completed.
    -- Stationary point found.

                         Standard orientation:
 ---------------------------------------------------------------------
 Center     Atomic      Atomic             Coordinates (Angstroms)
 Number     Number       Type             X           Y           Z
 ---------------------------------------------------------------------
      1          6           0        5.035289   -0.875459    0.000007
      2          7           0        3.942618   -1.647427    0.000000
      3          6           0        2.858635   -0.731226    0.000002
      4          6           0        3.325787    0.608069    0.000003
      5          7           0        4.718064    0.508433    0.000010
      6          1           0        5.359273    1.303546    0.000015
      7          7           0        2.602535    1.765422    0.000002
      8          6           0        1.263960    1.539927   -0.000001
      9          7           0        0.703313    0.260605   -0.000003
     10          6           0        1.442701   -0.970124   -0.000001
     11          8           0        0.832846   -2.089661   -0.000004
     12          7           0        0.408757    2.600170   -0.000002
     13          1           0        6.061098   -1.225271    0.000009
     14          1           0       -0.344783    0.160369   -0.000005
     15          1           0        0.834932    3.527286   -0.000001
     16          1           0       -0.622965    2.499051   -0.000004
     17          6           0       -4.213021   -1.470067    0.000001
     18          6           0       -4.983312   -0.338174    0.000001
     19          7           0       -4.392849    0.908977   -0.000000
     20          6           0       -2.956526    1.084981   -0.000002
     21          8           0       -2.501067    2.265870   -0.000003
     22          7           0       -2.192794   -0.065355   -0.000003
     23          6           0       -2.766443   -1.305230   -0.000002
     24          7           0       -1.943285   -2.374093   -0.000003
     25          1           0       -4.947958    1.769775    0.000000
     26          1           0       -4.666338   -2.458262    0.000002
     27          1           0       -6.072537   -0.368507    0.000003
     28          1           0       -0.891435   -2.250936   -0.000006
     29          1           0       -2.330451   -3.320033   -0.000003
 ---------------------------------------------------------------------

 The electronic state is 1-A.
 Alpha  occ. eigenvalues --  -18.76581 -18.74075 -14.09453 -14.06159 -14.04478
 Alpha  occ. eigenvalues --  -14.03816 -14.02277 -14.01844 -13.99045 -13.99018
 Alpha  occ. eigenvalues --  -10.05295 -10.02538 -10.01939 -10.00479 -10.00210
 Alpha  occ. eigenvalues --   -9.97199  -9.96238  -9.94853  -9.91863  -0.95820
 Alpha  occ. eigenvalues --   -0.92078  -0.90221  -0.89210  -0.87804  -0.86389
 Alpha  occ. eigenvalues --   -0.79952  -0.79445  -0.78701  -0.76692  -0.71759
 Alpha  occ. eigenvalues --   -0.65601  -0.60718  -0.59542  -0.57702  -0.55848
 Alpha  occ. eigenvalues --   -0.53259  -0.52087  -0.50966  -0.50112  -0.48001
 Alpha  occ. eigenvalues --   -0.45553  -0.45328  -0.44004  -0.42571  -0.40656
 Alpha  occ. eigenvalues --   -0.40340  -0.40185  -0.39417  -0.38094  -0.37625
 Alpha  occ. eigenvalues --   -0.35626  -0.34979  -0.33515  -0.33124  -0.32524
 Alpha  occ. eigenvalues --   -0.30716  -0.30316  -0.23483  -0.23185  -0.21598
 Alpha  occ. eigenvalues --   -0.21366  -0.20659  -0.20602  -0.20131  -0.19181
 Alpha  occ. eigenvalues --   -0.18328  -0.17190  -0.14033
 Alpha virt. eigenvalues --   -0.05969  -0.01686  -0.00112   0.00910   0.04104
 Alpha virt. eigenvalues --    0.04739   0.07639   0.08604   0.08883   0.09237
 Alpha virt. eigenvalues --    0.10437   0.12986   0.13365   0.14803   0.14986

 Mulliken charges:
               1
     1  C    0.236163
     2  N   -0.495991
     3  C    0.114371
     4  C    0.554630
     5  N   -0.691359
     6  H    0.304577
     7  N   -0.615229
     8  C    0.785659
     9  N   -0.756917
    10  C    0.583184
    11  O   -0.498487
    12  N   -0.747647
    13  H    0.192097
    14  H    0.339263
    15  H    0.298922
    16  H    0.310833
    17  C   -0.240821
    18  C    0.140781
    19  N   -0.666478
    20  C    0.749206
    21  O   -0.474097
    22  N   -0.630341
    23  C    0.599959
    24  N   -0.730675
    25  H    0.320942
    26  H    0.170781
    27  H    0.216008
    28  H    0.334275
    29  H    0.296393
 Sum of Mulliken charges =  -0.00000

 Dipole moment (field-independent basis, Debye):
    X=             -6.3865    Y=              1.4361    Z=              0.0000  Tot=              6.5460
 Quadrupole moment (field-independent basis, Debye-Ang):
   XX=            -57.0151   YY=           -104.9055   ZZ=           -111.5572
   XY=             16.7179   XZ=              0.0001   YZ=              0.0000

 Normal termination of Gaussian 16 at Sun Oct 29 08:37:15 2023.
